(C) 2021 by FIZ Karlsruhe - Leibniz Institute for Information Infrastructure.  All rights reserved.
data_11-ICSD
_database_code_ICSD 11
_audit_creation_date 1980-01-01
_audit_update_record 2007-08-01
_chemical_name_common 'Calcium dinitrate(V) trihydrate'
_chemical_formula_structural 'Ca (N O3)2 (H2 O)3'
_chemical_formula_sum 'H6 Ca1 N2 O9'
_exptl_crystal_density_diffrn 1.9
_citation_title 'Structure cristalline du nitrate de calcium trihydrate'
loop_
_citation_id
_citation_journal_full
_citation_year
_citation_journal_volume
_citation_page_first
_citation_page_last
_citation_journal_id_ASTM
primary

;
Acta Crystallographica, Section B: Structural Crystallography and Crystal
Chemistry
; 1976 32 235 238 ACBCAR
loop_
_citation_author_citation_id
_citation_author_name
primary 'Leclaire, A.'
_cell_length_a 12.250(7)
_cell_length_b 20.3590(90)
_cell_length_c 13.517(7)
_cell_angle_alpha 90.
_cell_angle_beta 114.89(8)
_cell_angle_gamma 90.
_cell_volume 3057.99
_cell_formula_units_Z 16
_space_group_name_H-M_alt 'P 1 21/n 1'
_space_group_IT_number 14
loop_
_space_group_symop_id
_space_group_symop_operation_xyz
1 '-x+1/2, y+1/2, -z+1/2'
2 '-x, -y, -z'
3 'x+1/2, -y+1/2, z+1/2'
4 'x, y, z'
loop_
_atom_type_symbol
_atom_type_oxidation_number
Ca2+ 2
N5+ 5
O2- -2
H1+ 1
loop_
_atom_site_label
_atom_site_type_symbol
_atom_site_symmetry_multiplicity
_atom_site_Wyckoff_symbol
_atom_site_fract_x
_atom_site_fract_y
_atom_site_fract_z
_atom_site_B_iso_or_equiv
_atom_site_occupancy
Ca1 Ca2+ 4 e 0.05463(9) 0.29617(6) 0.25925(9) . 1.
Ca2 Ca2+ 4 e -.26655(10) 0.15737(6) 0.26957(9) . 1.
Ca3 Ca2+ 4 e -.44214(9) 0.46152(6) 0.26546(9) . 1.
Ca4 Ca2+ 4 e 0.28447(9) 0.09826(6) 0.27136(9) . 1.
N1 N5+ 4 e -.18715(39) 0.08421(25) 0.12189(37) . 1.
N2 N5+ 4 e 0.12874(44) 0.05594(24) 0.37555(40) . 1.
N3 N5+ 4 e 0.06846(40) 0.17600(24) 0.13662(37) . 1.
N4 N5+ 4 e -.01403(44) 0.20077(26) 0.38887(41) . 1.
N5 N5+ 4 e 0.00677(59) 0.40963(34) 0.37029(48) . 1.
N6 N5+ 4 e -.33696(47) 0.24920(27) 0.40132(41) . 1.
N7 N5+ 4 e 0.41041(45) 0.34780(27) 0.15824(31) . 1.
N8 N5+ 4 e 0.47636(46) -.00018(27) 0.37217(41) . 1.
O1 O2- 4 e -.17296(35) 0.06467(21) 0.21574(33) . 1.
O2 O2- 4 e -.14381(38) 0.04997(24) 0.07159(35) . 1.
O3 O2- 4 e -.24236(37) 0.13538(24) 0.08541(35) . 1.
O4 O2- 4 e 0.10765(33) 0.04143(20) 0.27810(29) . 1.
O5 O2- 4 e 0.21351(37) 0.09292(24) 0.42616(32) . 1.
O6 O2- 4 e 0.06099(40) 0.03264(24) 0.41466(36) . 1.
O7 O2- 4 e 0.14650(31) 0.19366(21) 0.23036(30) . 1.
O8 O2- 4 e 0.08792(37) 0.12527(21) 0.09687(31) . 1.
O9 O2- 4 e -.02077(33) 0.21007(23) 0.09175(32) . 1.
O10 O2- 4 e -.07657(33) 0.21048(22) 0.28903(31) . 1.
O11 O2- 4 e 0.08454(39) 0.22889(26) 0.43242(35) . 1.
O12 O2- 4 e -.05247(42) 0.16382(24) 0.43984(37) . 1.
O13 O2- 4 e -.03506(60) 0.35684(30) 0.37632(56) . 1.
O14 O2- 4 e 0.07690(39) 0.41286(23) 0.32419(36) . 1.
O15 O2- 4 e -.02126(97) 0.45823(34) 0.40513(86) . 1.
O16 O2- 4 e -.24933(39) 0.26254(25) 0.38204(38) . 1.
O17 O2- 4 e -.39587(43) 0.19917(26) 0.35700(43) . 1.
O18 O2- 4 e -.36497(49) 0.28417(26) 0.46024(43) . 1.
O19 O2- 4 e 0.37162(39) 0.40466(23) 0.13194(38) . 1.
O20 O2- 4 e -.47876(36) 0.34141(24) 0.21867(37) . 1.
O21 O2- 4 e 0.34270(44) 0.30036(29) 0.12584(35) . 1.
O22 O2- 4 e 0.37044(38) -.01332(22) 0.35794(36) . 1.
O23 O2- 4 e 0.49251(37) 0.05577(24) 0.34184(42) . 1.
O24 O2- 4 e -.05727(44) 0.46079(27) 0.08911(42) . 1.
O25 O2- 4 e 0.11481(37) 0.34434(22) 0.12765(35) . 1.
O26 O2- 4 e 0.26308(39) 0.30549(26) 0.37742(38) . 1.
O27 O2- 4 e -.14213(42) 0.33102(27) 0.13066(45) . 1.
O28 O2- 4 e -.25936(36) 0.07053(23) 0.39578(34) . 1.
O29 O2- 4 e -.44284(36) 0.09746(28) 0.15361(37) . 1.
O30 O2- 4 e -.35377(62) 0.24749(34) 0.14938(42) . 1.
O31 O2- 4 e -.26322(37) 0.41197(25) 0.40571(37) . 1.
O32 O2- 4 e 0.46587(41) 0.43172(27) 0.38475(38) . 1.
O33 O2- 4 e -.33759(46) 0.44598(21) 0.14991(41) . 1.
O34 O2- 4 e 0.35388(40) 0.16405(24) 0.16037(38) . 1.
O35 O2- 4 e 0.26050(48) 0.02044(26) 0.12982(37) . 1.
O36 O2- 4 e 0.39951(39) 0.18105(24) 0.40454(36) . 1.
loop_
_atom_site_aniso_label
_atom_site_aniso_type_symbol
_atom_site_aniso_beta_11
_atom_site_aniso_beta_22
_atom_site_aniso_beta_33
_atom_site_aniso_beta_12
_atom_site_aniso_beta_13
_atom_site_aniso_beta_23
Ca1 Ca2+ 0.00478 0.00197 0.0046 -.00004 0.0027 -.00014
Ca2 Ca2+ 0.00498 0.00202 0.00477 0.00021 0.0029 -.00024
Ca3 Ca2+ 0.00444 0.00188 0.0041 0.00009 0.00211 0.00011
Ca4 Ca2+ 0.00411 0.00169 0.00418 0 0.00197 -.00012
N1 N5+ 0.00448 0.00202 0.00416 -.00023 0.00204 -.00018
N2 N5+ 0.00645 0.00163 0.00496 0.00044 0.00287 0.00008
N3 N5+ 0.00459 0.00185 0.00412 -.00031 0.0025 0.00045
N4 N5+ 0.00577 0.00242 0.00457 0 0.00259 -.00045
N5 N5+ 0.01274 0.00254 0.00769 -.00014 0.00689 -.00066
N6 N5+ 0.008 0.00205 0.00586 0.00015 0.00396 -.00022
N7 N5+ 0.00737 0.00179 0.005 0.0001 0.00242 -.00019
N8 N5+ 0.00611 0.0019 0.00555 0.00021 0.002 -.00017
O1 O2- 0.00705 0.00251 0.00545 0.00083 0.0039 0.00044
O2 O2- 0.00802 0.00319 0.00655 0.00028 0.00467 -.00124
O3 O2- 0.00696 0.00285 0.00582 0.00059 0.00294 0.0009
O4 O2- 0.00601 0.00226 0.00382 -.00073 0.00227 -.00023
O5 O2- 0.00694 0.0027 0.0051 -.00112 0.00177 -.00103
O6 O2- 0.00859 0.00318 0.0072 -.00026 0.00576 0.00022
O7 O2- 0.00397 0.00263 0.00422 0.00024 0.00097 -.0005
O8 O2- 0.0082 0.0019 0.00494 -.00044 0.00309 -.00054
O9 O2- 0.00438 0.00307 0.00513 0.00086 0.00147 0.00078
O10 O2- 0.00528 0.00282 0.00433 -.00026 0.00232 -.0001
O11 O2- 0.00699 0.0038 0.00558 -.0014 0.00264 -.00046
O12 O2- 0.01039 0.00283 0.00694 -.00026 0.00545 0.0009
O13 O2- 0.01758 0.00291 0.01551 -.00185 0.01327 -.0008
O14 O2- 0.00864 0.00283 0.0068 -.00075 0.00462 -.00035
O15 O2- 0.03907 0.00253 0.02495 -.00119 0.0268 -.00218
O16 O2- 0.00753 0.00326 0.00784 -.00113 0.00509 -.00063
O17 O2- 0.00916 0.00275 0.01084 -.001 0.00698 -.00157
O18 O2- 0.01293 0.00314 0.0097 0.00047 0.00792 -.00186
O19 O2- 0.00799 0.00187 0.00829 0.00071 0.00264 -.00003
O20 O2- 0.00553 0.00281 0.00722 0.00111 0.00103 0.00005
O21 O2- 0.00861 0.00222 0.01277 -.00083 0.00406 -.0021
O22 O2- 0.00659 0.00254 0.00703 -.00033 0.00344 0.00007
O23 O2- 0.00592 0.00226 0.01107 0.0001 0.00421 0.00099
O24 O2- 0.00819 0.00303 0.00893 -.00196 0.00125 -.00047
O25 O2- 0.00798 0.00249 0.00682 -.00015 0.00477 0.00015
O26 O2- 0.00643 0.00363 0.00679 -.00019 0.00162 -.00042
O27 O2- 0.00686 0.00317 0.01031 0.00114 0.00217 0.00122
O28 O2- 0.00649 0.00287 0.0066 -.00049 0.0037 0.00018
O29 O2- 0.00597 0.00398 0.00768 -.00082 0.00335 -.00156
O30 O2- 0.01773 0.00501 0.00642 0.00615 0.00446 0.00118
O31 O2- 0.00644 0.00297 0.00734 0.00082 0.00149 0.00051
O32 O2- 0.00882 0.00381 0.00764 0.00005 0.00482 0.00144
O33 O2- 0.01072 0.00344 0.00834 0.00114 0.00662 0.00043
O34 O2- 0.00829 0.00289 0.00902 0.00027 0.00585 0.00076
O35 O2- 0.01214 0.00331 0.0052 0.0019 0.00214 -.00104
O36 O2- 0.00689 0.00292 0.00681 -.00054 0.00245 -.00096
#End of TTdata_11-ICSD
#
