(C) 2021 by FIZ Karlsruhe - Leibniz Institute for Information Infrastructure.  All rights reserved.
data_13-ICSD
_database_code_ICSD 13
_audit_creation_date 1980-01-01
_audit_update_record 2012-08-01
_chemical_name_common 'Nonacalcium manganese hydrogen heptakis(phosphate(V))'
_chemical_formula_structural 'Ca9 Mn H (P O4)7'
_chemical_formula_sum 'H1 Ca9 Mn1 O28 P7'
_chemical_name_structure_type Whitlockite#Ca9FeH(PO4)7
_exptl_crystal_density_diffrn 3.07
_citation_title
'Crystal structure of manganese-whitlockite, Ca18 Mn2 H2 (P O4)14'
loop_
_citation_id
_citation_journal_full
_citation_year
_citation_journal_volume
_citation_page_first
_citation_page_last
_citation_journal_id_ASTM
primary

;
Acta Crystallographica, Section B: Structural Crystallography and Crystal
Chemistry
; 1976 32 250 253 ACBCAR
loop_
_citation_author_citation_id
_citation_author_name
primary 'Kostiner, E.'
primary 'Rea, J.R.'
_cell_length_a 10.438(2)
_cell_length_b 10.438(2)
_cell_length_c 37.150(10)
_cell_angle_alpha 90.
_cell_angle_beta 90.
_cell_angle_gamma 120.
_cell_volume 3505.29
_cell_formula_units_Z 6
_space_group_name_H-M_alt 'R 3 c H'
_space_group_IT_number 161
loop_
_space_group_symop_id
_space_group_symop_operation_xyz
1 '-x+y, y, z+1/2'
2 'x, x-y, z+1/2'
3 '-y, -x, z+1/2'
4 '-x+y, -x, z'
5 '-y, x-y, z'
6 'x, y, z'
7 '-x+y+2/3, y+1/3, z+5/6'
8 'x+2/3, x-y+1/3, z+5/6'
9 '-y+2/3, -x+1/3, z+5/6'
10 '-x+y+2/3, -x+1/3, z+1/3'
11 '-y+2/3, x-y+1/3, z+1/3'
12 'x+2/3, y+1/3, z+1/3'
13 '-x+y+1/3, y+2/3, z+1/6'
14 'x+1/3, x-y+2/3, z+1/6'
15 '-y+1/3, -x+2/3, z+1/6'
16 '-x+y+1/3, -x+2/3, z+2/3'
17 '-y+1/3, x-y+2/3, z+2/3'
18 'x+1/3, y+2/3, z+2/3'
loop_
_atom_type_symbol
_atom_type_oxidation_number
Mn2+ 2
Ca2+ 2
P5+ 5
O2- -2
H1+ 1
loop_
_atom_site_label
_atom_site_type_symbol
_atom_site_symmetry_multiplicity
_atom_site_Wyckoff_symbol
_atom_site_fract_x
_atom_site_fract_y
_atom_site_fract_z
_atom_site_B_iso_or_equiv
_atom_site_occupancy
Mn1 Mn2+ 6 a 0 0 0 . 1.
Ca1 Ca2+ 18 b 0.2954(1) 0.1585(1) 0.67216(5) . 1.
Ca2 Ca2+ 18 b 0.2813(1) 0.1464(1) 0.56572(4) . 1.
Ca3 Ca2+ 18 b 0.3874(1) 0.1798(1) 0.76784(4) . 1.
P1 P5+ 6 a 0 0 0.75426(8) . 1.
P2 P5+ 18 b 0.3166(1) 0.1431(1) 0.86498(4) . 1.
P3 P5+ 18 b 0.3524(1) 0.1590(1) 0.96737(4) . 1.
O1 O2- 18 b 0.2798(4) 0.0955(4) 0.8259(1) . 1.
O2 O2- 18 b 0.2449(4) 0.2318(4) 0.8783(1) . 1.
O3 O2- 18 b 0.2708(3) 0.0006(3) 0.8868(1) . 1.
O4 O2- 18 b 0.4868(4) 0.2415(3) 0.8711(1) . 1.
O5 O2- 18 b 0.4017(4) 0.1953(3) 0.0075(1) . 1.
O6 O2- 18 b 0.4020(4) 0.0512(4) 0.9542(1) . 1.
O7 O2- 18 b 0.4174(4) 0.3063(4) 0.9473(1) . 1.
O8 O2- 18 b 0.1817(4) 0.0802(3) 0.9629(1) . 1.
O9 O2- 6 a 0 0 0.7972(2) . 1.
O10 O2- 18 b -.0182(4) 0.1303(3) 0.7425(1) . 1.
loop_
_atom_site_aniso_label
_atom_site_aniso_type_symbol
_atom_site_aniso_B_11
_atom_site_aniso_B_22
_atom_site_aniso_B_33
_atom_site_aniso_B_12
_atom_site_aniso_B_13
_atom_site_aniso_B_23
Mn1 Mn2+ 0.68(2) 0.68(2) 0.73(4) 0.34(1) 0 0
Ca1 Ca2+ 2.85(5) 1.49(4) 1.42(4) 1.65(3) -.97(3) -.68(3)
Ca2 Ca2+ 0.75(3) 0.76(3) 0.80(4) 0.40(2) -.03(2) -.06(2)
Ca3 Ca2+ 0.91(3) 0.69(3) 0.82(4) 0.42(2) -.18(2) -.07(2)
P1 P5+ 0.86(11) 0.86(11) 2.14(10) 0.43(6) 0 0
P2 P5+ 0.68(4) 0.61(3) 0.81(4) 0.38(3) 0.02(3) 0.03(3)
P3 P5+ 0.59(3) 0.68(3) 0.67(4) 0.27(3) 0.03(3) 0.06(3)
O1 O2- 1.62(12) 1.45(11) 0.89(10) 0.91(10) 0.13(8) 0.14(8)
O2 O2- 1.40(11) 1.35(11) 1.34(11) 1.03(10) 0.20(8) 0.04(9)
O3 O2- 0.94(9) 0.68(9) 0.82(9) 0.36(7) 0.19(7) 0.27(7)
O4 O2- 0.73(10) 0.57(10) 1.50(12) 0.26(8) 0.22(9) 0.03(8)
O5 O2- 1.61(12) 1.05(10) 0.79(10) 0.69(9) -.44(8) -.12(8)
O6 O2- 1.14(10) 1.29(10) 1.04(10) 0.84(9) -.07(8) -.03(12)
O7 O2- 1.32(11) 0.89(10) 0.88(10) 0.28(8) 0.24(8) 0.28(8)
O8 O2- 0.64(9) 0.83(9) 1.16(11) 0.30(8) -.05(8) -.15(8)
O9 O2- 2.82(21) 2.82(21) 1.84(30) 1.41(11) 0 0
O10 O2- 1.34(11) 0.81(9) 2.25(14) 0.74(9) 0.62(10) 0.40(8)
#End of TTdata_13-ICSD
#
