(C) 2021 by FIZ Karlsruhe - Leibniz Institute for Information Infrastructure.  All rights reserved.
data_9-ICSD
_database_code_ICSD 9
_audit_creation_date 1980-01-01
_audit_update_record 2013-08-01
_chemical_name_common 'Potassium copper phosphate(V) hydrate'
_chemical_formula_structural 'K Cu (P O4) (H2 O)'
_chemical_formula_sum 'H2 Cu1 K1 O5 P1'
_chemical_name_structure_type KCuPO4H2O
_exptl_crystal_density_diffrn 2.99
_citation_title

;
Structure cristalline de l'orthophosphate de cuivre-potassium monohydrate Cu K
P O4 (H2 O)
;
loop_
_citation_id
_citation_journal_full
_citation_year
_citation_journal_volume
_citation_page_first
_citation_page_last
_citation_journal_id_ASTM
primary

;
Acta Crystallographica, Section B: Structural Crystallography and Crystal
Chemistry
; 1976 32 203 205 ACBCAR
loop_
_citation_author_citation_id
_citation_author_name
primary 'Brunel, M.'
primary 'Brunel-Lauegt, M.'
primary 'Tordjman, I.'
_cell_length_a 10.5376(9)
_cell_length_b 6.7830(9)
_cell_length_c 6.7206(9)
_cell_angle_alpha 90.
_cell_angle_beta 93.01(1)
_cell_angle_gamma 90.
_cell_volume 479.7
_cell_formula_units_Z 4
_space_group_name_H-M_alt 'P 1 21/c 1'
_space_group_IT_number 14
loop_
_space_group_symop_id
_space_group_symop_operation_xyz
1 'x, -y+1/2, z+1/2'
2 '-x, -y, -z'
3 '-x, y+1/2, -z+1/2'
4 'x, y, z'
loop_
_atom_type_symbol
_atom_type_oxidation_number
Cu2+ 2
K1+ 1
P5+ 5
O2- -2
H1+ 1
loop_
_atom_site_label
_atom_site_type_symbol
_atom_site_symmetry_multiplicity
_atom_site_Wyckoff_symbol
_atom_site_fract_x
_atom_site_fract_y
_atom_site_fract_z
_atom_site_B_iso_or_equiv
_atom_site_occupancy
Cu1 Cu2+ 4 e -.00692(3) 0.20391(5) 0.22186(5) . 1.
K1 K1+ 4 e 0.31633(8) 0.57615(14) 0.53700(12) . 1.
P1 P5+ 4 e 0.17619(7) 0.46680(11) -.00152(11) . 1.
O1 O2- 4 e 0.3120(2) 0.4661(4) -.0601(2) . 1.
O2 O2- 4 e 0.1617(2) 0.6136(4) 0.1712(3) . 1.
O3 O2- 4 e 0.0846(2) 0.5358(3) -.1826(3) . 1.
O4 O2- 4 e 0.1283(2) 0.2577(3) 0.0478(3) . 1.
O5 O2- 4 e 0.4600(4) 0.3222(6) 0.2810(4) . 1.
H1 H1+ 4 e 0.422(6) 0.348(10) 0.176(8) . 1.
H2 H1+ 4 e 0.413(5) 0.229(7) 0.315(7) . 1.
loop_
_atom_site_aniso_label
_atom_site_aniso_type_symbol
_atom_site_aniso_beta_11
_atom_site_aniso_beta_22
_atom_site_aniso_beta_33
_atom_site_aniso_beta_12
_atom_site_aniso_beta_13
_atom_site_aniso_beta_23
Cu1 Cu2+ 0.00248 0.00421 0.00452 0.00021 0.00032 0.00081
K1 K1+ 0.00497 0.01318 0.00917 0.00198 -.00084 -.00095
P1 P5+ 0.00194 0.00412 0.00419 0.0001 0.00028 -.00007
O1 O2- 0.00189 0.00929 0.00797 0.00063 0.00085 -.00044
O2 O2- 0.00259 0.00745 0.00644 -.00019 0.00027 -.00322
O3 O2- 0.00324 0.0037 0.0056 0.00033 -.00039 0.00011
O4 O2- 0.00342 0.00455 0.00689 0.00007 0.0016 0.00098
O5 O2- 0.00666 0.02108 0.01625 -.00486 -.00336 0.00875
#End of TTdata_9-ICSD
#
