(C) 2021 by FIZ Karlsruhe - Leibniz Institute for Information Infrastructure.  All rights reserved.
data_8-ICSD
_database_code_ICSD 8
_audit_creation_date 1980-01-01
_audit_update_record 2013-02-01
_chemical_name_common 'Barium trithiotellurate(IV)'
_chemical_formula_structural 'Ba (Te S3)'
_chemical_formula_sum 'Ba1 S3 Te1'
_exptl_crystal_density_diffrn 4.24
_citation_title

;
Structure cristalline d'un thiotellurite de baryum Ba Te S3. Comparaison avec
d'autres groupements Te X3
;
loop_
_citation_id
_citation_journal_full
_citation_year
_citation_journal_volume
_citation_page_first
_citation_page_last
_citation_journal_id_ASTM
primary

;
Acta Crystallographica, Section B: Structural Crystallography and Crystal
Chemistry
; 1976 32 444 448 ACBCAR
loop_
_citation_author_citation_id
_citation_author_name
primary 'Jumas, P.J.'
primary 'Ribes, M.'
primary 'Maurin, M.'
primary 'Philippot, E.'
_cell_length_a 7.490(5)
_cell_length_b 6.898(4)
_cell_length_c 10.942(6)
_cell_angle_alpha 90.
_cell_angle_beta 90.
_cell_angle_gamma 90.
_cell_volume 565.33
_cell_formula_units_Z 4
_space_group_name_H-M_alt 'P n m a'
_space_group_IT_number 62
loop_
_space_group_symop_id
_space_group_symop_operation_xyz
1 'x+1/2, y, -z+1/2'
2 'x, -y+1/2, z'
3 '-x+1/2, y+1/2, z+1/2'
4 '-x, -y, -z'
5 '-x+1/2, -y, z+1/2'
6 '-x, y+1/2, -z'
7 'x+1/2, -y+1/2, -z+1/2'
8 'x, y, z'
loop_
_atom_type_symbol
_atom_type_oxidation_number
Ba2+ 2
Te4+ 4
S2- -2
loop_
_atom_site_label
_atom_site_type_symbol
_atom_site_symmetry_multiplicity
_atom_site_Wyckoff_symbol
_atom_site_fract_x
_atom_site_fract_y
_atom_site_fract_z
_atom_site_B_iso_or_equiv
_atom_site_occupancy
Ba1 Ba2+ 4 c 0.2553(4) 0.25 0.5865(1) . 1.
Te1 Te4+ 4 c 0.5197(3) 0.25 0.2441(4) . 1.
S1 S2- 4 c 0.3706(10) 0.25 0.0548(5) . 1.
S2 S2- 8 d 0.3780(8) 0.5143(11) 0.3408(6) . 1.
loop_
_atom_site_aniso_label
_atom_site_aniso_type_symbol
_atom_site_aniso_U_11
_atom_site_aniso_U_22
_atom_site_aniso_U_33
_atom_site_aniso_U_12
_atom_site_aniso_U_13
_atom_site_aniso_U_23
Ba1 Ba2+ 0.0193(4) 0.0196(9) 0.0154(8) 0 -.006(2) 0
Te1 Te4+ 0.0150(9) 0.0133(8) 0.0160(9) 0 -.001(2) 0
S1 S2- 0.003(3) 0.063(4) 0.012(4) 0 0.004(6) 0
S2 S2- 0.027(7) 0.003(2) 0.016(2) 0.005(5) -.009(5) -.010(4)
#End of TTdata_8-ICSD
#
