(C) 2021 by FIZ Karlsruhe - Leibniz Institute for Information Infrastructure.  All rights reserved.
data_6-ICSD
_database_code_ICSD 6
_audit_creation_date 1980-01-01
_audit_update_record 2008-08-01
_chemical_name_common 'Dialuminium dihydroxide tellurate(IV) sulfate(VI)'
_chemical_formula_structural 'Al2 (O H)2 (Te O3) (S O4)'
_chemical_formula_sum 'H2 Al2 O9 S1 Te1'
_exptl_crystal_density_diffrn 3.66
_citation_title 'Crystal structure of Al2 (O H)2 Te O3 S O4'
loop_
_citation_id
_citation_journal_full
_citation_year
_citation_journal_volume
_citation_page_first
_citation_page_last
_citation_journal_id_ASTM
primary

;
Acta Crystallographica, Section B: Structural Crystallography and Crystal
Chemistry
; 1976 32 407 411 ACBCAR
loop_
_citation_author_citation_id
_citation_author_name
primary 'Johansson, G.B.'
primary 'Lindqvist, O.'
_cell_length_a 7.013(2)
_cell_length_b 9.539(4)
_cell_length_c 4.880(2)
_cell_angle_alpha 90.
_cell_angle_beta 92.65(3)
_cell_angle_gamma 90.
_cell_volume 326.11
_cell_formula_units_Z 2
_space_group_name_H-M_alt 'P 1 21/m 1'
_space_group_IT_number 11
loop_
_space_group_symop_id
_space_group_symop_operation_xyz
1 'x, -y+1/2, z'
2 '-x, -y, -z'
3 '-x, y+1/2, -z'
4 'x, y, z'
loop_
_atom_type_symbol
_atom_type_oxidation_number
Te4+ 4
Al3+ 3
S6+ 6
O2- -2
H1+ 1
loop_
_atom_site_label
_atom_site_type_symbol
_atom_site_symmetry_multiplicity
_atom_site_Wyckoff_symbol
_atom_site_fract_x
_atom_site_fract_y
_atom_site_fract_z
_atom_site_B_iso_or_equiv
_atom_site_occupancy
Te1 Te4+ 2 e 0.18867(5) 0.25 0.31015(7) . 1.
Al1 Al3+ 4 f 0.0544(2) 0.5752(1) 0.2552(2) . 1.
S1 S6+ 2 e 0.6069(2) 0.25 0.9623(2) . 1.
O1 O2- 2 e -.0067(6) 0.25 0.5801(8) . 1.
O2 O2- 4 f 0.0686(4) 0.3920(3) 0.0887(5) . 1.
O3 O2- 4 f 0.1682(4) 0.4846(3) 0.5657(5) . 1.
O4 O2- 2 e 0.4058(6) 0.25 0.8663(10) . 1.
O5 O2- 2 e 0.6250(7) 0.25 0.2619(10) . 1.
O6 O2- 4 f 0.7031(4) 0.3760(3) 0.8528(7) . 1.
loop_
_atom_site_aniso_label
_atom_site_aniso_type_symbol
_atom_site_aniso_U_11
_atom_site_aniso_U_22
_atom_site_aniso_U_33
_atom_site_aniso_U_12
_atom_site_aniso_U_13
_atom_site_aniso_U_23
Te1 Te4+ 0.00485(18) 0.00479(11) 0.00510(11) 0 0.00034(7) 0
Al1 Al3+ 0.0080(2) 0.0044(5) 0.0066(5) 0.0004(3) 0.0007(3) 0
S1 S6+ 0.0049(5) 0.0092(5) 0.0095(5) 0 0.0009(4) 0
O1 O2- 0.0139(16) 0.0080(16) 0.0037(16) 0 0.0031(11) 0
O2 O2- 0.0109(11) 0.003(1) 0.0062(11) 0.0008(8) -.0014(7) 0.0000(7)
O3 O2- 0.0045(10) 0.0091(11) 0.0085(11) -.0007(9) 0.0003(7) -.0003(10)
O4 O2- 0.0054(17) 0.0168(21) 0.0250(24) 0 -.0018(15) 0
O5 O2- 0.0134(21) 0.0414(31) 0.0107(22) 0 -.0008(15) 0
O6 O2- 0.0106(12) 0.0095(12) 0.0221(16) -.0015(10) 0.0065(10) 0.0001(10)
#End of TTdata_6-ICSD
#
